/*--------------------------------*- C++ -*----------------------------------*\
  =========                 |
  \\      /  F ield         | OpenFOAM: The Open Source CFD Toolbox
   \\    /   O peration     | Website:  https://openfoam.org
    \\  /    A nd           | Version:  8
     \\/     M anipulation  |
\*---------------------------------------------------------------------------*/
FoamFile
{
    version     2.0;
    format      ascii;
    class       polyBoundaryMesh;
    location    "constant/polyMesh";
    object      boundary;
}
// * * * * * * * * * * * * * * * * * * * * * * * * * * * * * * * * * * * * * //

6
(
    front
    {
        type            wall;
        physicalType    wall;
        nFaces          1681;
        startFace       201720;
    }
    back
    {
        type            wall;
        physicalType    wall;
        nFaces          1681;
        startFace       203401;
    }
    left
    {
        type            wall;
        physicalType    wall;
        nFaces          1681;
        startFace       205082;
    }
    right
    {
        type            wall;
        physicalType    wall;
        nFaces          1681;
        startFace       206763;
    }
    bottom
    {
        type            wall;
        physicalType    wall;
        nFaces          1681;
        startFace       208444;
    }
    top
    {
        type            wall;
        physicalType    wall;
        nFaces          1681;
        startFace       210125;
    }
)

// ************************************************************************* //
